date Tue Jul 23 08:29:05 EDT 2013
master hostname dt35.bredas.chemistry.gatech.edu
master system Linux dt35.bredas.chemistry.gatech.edu 2.6.32.26-175.fc12.x86_64 #1 SMP Wed Dec 1 21:39:34 UTC 2010 x86_64 x86_64 x86_64 GNU/Linux
user afonari
output data in /home/afonari/Cyclopentadiene/Methane-CRYSTAL09/input.out
mpirun executable in /usr/lib64/openmpi/bin
Pcrystal executable in /programs/Crystal09/bin/Linux-ifort_11.1_openmpi_emt64/v1_0_1
input data in /home/afonari/Cyclopentadiene/Methane-CRYSTAL09/input.d12
file machines.LINUX in /scratch/afonari
list of nodes in /scratch/afonari/nodes.par
creating temporary directories /scratch/afonari/tmp_p29908_afonari on each node
copying Pcrystal executable on each node
copying input file on each node
Methane
CRYSTAL
0 0 0
1
10.0 10.0 10.0 90.0 90.0 90.0
5
 6                  0.00000000   -0.00000000    0.00000000
 1                  0.00000000    0.00000000    0.106999996
 1                 -0.00000000   -0.100880563   -0.035666665
 1                 -0.087365130    0.050440282   -0.035666665
 1                  0.087365130    0.050440282   -0.035666665
FREQCALC 
ENDFREQ
END
1 2
 0 0 3 1 1
 18.7311370              0.03349460       
  2.8253937              0.23472695       
  0.6401217              0.81375733
 0 0 1 0 1
 0.1612778              1.0000000
6 3
 0 0 6 2 1
 3047.5249000              0.0018347        
  457.3695100              0.0140373        
  103.9486900              0.0688426        
   29.2101550              0.2321844        
    9.2866630              0.4679413        
    3.1639270              0.3623120
 0 1 3 4 1
 7.8682724 -0.1193324 0.0689991        
 1.8812885 -0.1608542 0.3164240        
 0.5442493  1.1434564 0.7443083
 0 1 1 0 1
 0.1687144  1.0000000 1.0000000
99 0
END
SCFDIR
DFT
EXCHANGE
PBE
CORRELAT
PBE
XLGRID
END
FMIXING
60
SHRINK
2  4
MAXCYCLE
500
END
Tue Jul 23 08:29:06 EDT 2013
 PROCESS            1  OF            4  WORKING
 PROCESS            2  OF            4  WORKING
 PROCESS            0  OF            4  WORKING
 PROCESS            3  OF            4  WORKING

         
 *******************************************************************************
 *                                                                             *
 *                                CRYSTAL09                                    *
 *                              public : 1.0                                   *
 *                      March 5th, 2010 - parallel executable                  *
 *                                                                             *
 *                                                                             *
 *                                                                             *
 *                              MAIN AUTHORS                                   *
 *                                                                             *
 *    R. DOVESI(1,10), V.R. SAUNDERS(2), C. ROETTI(1,10), R. ORLANDO (1,3),    *
 *  C.M. ZICOVICH-WILSON(1,4), F. PASCALE(5), B. CIVALLERI(1,10), K. DOLL(6),  *
 *       N.M. HARRISON(2,7), I. J. BUSH(2), Ph. D'ARCO(8), M. LLUNELL(9)       *
 *                                                                             *
 * (1) THEORETICAL CHEMISTRY GROUP - UNIVERSITA' DI TORINO - TORINO (ITALY)    *
 *      http://www.crystal.unito.it                                            *
 * (2) COMPUTATIONAL SCIENCE & ENGINEERING DEPARTMENT - CCLRC DARESBURY (UK)   *
 *     http://www.cse.clrc.ac.uk/cmg/CRYSTAL/                                  *
 * (3) UNIVERSITA' DEL PIEMONTE ORIENTALE - ALESSANDRIA (ITALY)                *
 * (4) UNIVERSIDAD AUTONOMA DEL ESTADO DE MORELOS - CUERNAVACA (MEXICO)        *
 * (5) UNIVERSITE' HENRI POINCARE' - NANCY (FRANCE)                            *
 * (6) MPI FUER FESTKOERPERFORSCHUNG - STUTTGART (GERMANY)                     *
 * (7) IMPERIAL COLLEGE - LONDON (UK)                                          *
 * (8) UNIVERSITE' PIERRE ET MARIE CURIE - PARIS (FRANCE)                      *
 * (9) UNIVERSIDAD DE BARCELONA - BARCELONA (SPAIN)                            *
 *(10) NIS - NANOSTRUCTURED INTERFACES AND SURFACES - TORINO (ITALY)           *
 *     http://www.crystal.unito.it                                             *
 *******************************************************************************
 EEEEEEEEEE STARTING  DATE 23 07 2013 TIME 08:29:07.5
 Methane                                                                         

 CRYSTAL CALCULATION
 (INPUT ACCORDING TO THE INTERNATIONAL TABLES FOR X-RAY CRYSTALLOGRAPHY)
 CRYSTAL FAMILY                       :  TRICLINIC   
 CRYSTAL CLASS  (GROTH - 1921)        :  TRICLINIC PEDIAL                     

 SPACE GROUP (NONCENTROSYMMETRIC)     :  P 1             

 LATTICE PARAMETERS  (ANGSTROMS AND DEGREES) - CONVENTIONAL CELL
        A           B           C        ALPHA        BETA       GAMMA
    10.00000    10.00000    10.00000    90.00000    90.00000    90.00000


 NUMBER OF IRREDUCIBLE ATOMS IN THE CONVENTIONAL CELL:    5

 INPUT COORDINATES

 ATOM AT. N.              COORDINATES
   1   6     0.000000000000E+00  0.000000000000E+00  0.000000000000E+00
   2   1     0.000000000000E+00  0.000000000000E+00  1.069999960000E-01
   3   1     0.000000000000E+00 -1.008805630000E-01 -3.566666500000E-02
   4   1    -8.736513000000E-02  5.044028200000E-02 -3.566666500000E-02
   5   1     8.736513000000E-02  5.044028200000E-02 -3.566666500000E-02

 *******************************************************************************

 << INFORMATION >>: FROM NOW ON, ALL COORDINATES REFER TO THE PRIMITIVE CELL

 *******************************************************************************

 LATTICE PARAMETERS  (ANGSTROMS AND DEGREES) - PRIMITIVE CELL
       A          B          C         ALPHA     BETA     GAMMA        VOLUME
   10.00000   10.00000   10.00000    90.00000  90.00000  90.00000   1000.000000

 COORDINATES OF THE EQUIVALENT ATOMS (FRACTIONAL UNITS)

 N. ATOM EQUIV AT. N.          X                  Y                  Z

   1   1   1    6 C     0.00000000000E+00  0.00000000000E+00  0.00000000000E+00

   2   2   1    1 H     0.00000000000E+00  0.00000000000E+00  1.06999996000E-01

   3   3   1    1 H     0.00000000000E+00 -1.00880563000E-01 -3.56666650000E-02

   4   4   1    1 H    -8.73651300000E-02  5.04402820000E-02 -3.56666650000E-02

   5   5   1    1 H     8.73651300000E-02  5.04402820000E-02 -3.56666650000E-02

 NUMBER OF SYMMETRY OPERATORS         :    1
 *******************************************************************************
 * GEOMETRY EDITING - INPUT COORDINATES ARE GIVEN IN ANGSTROM         
 *******************************************************************************

 FRQFRQFRQFRQFRQFRQFRQFRQFRQFRQFRQFRQFRQFRQFRQFRQFRQFRQFRQFRQFRQFRQFRQFRQFRQFRQ

                       FREQUENCY CALCULATION


 GCALCO - MAX INDICES DIRECT LATTICE VECTOR    14    14    14
 NO.OF VECTORS CREATED 6999 STARS  120 RMAX   224.39255 BOHR

 GEOMETRY FOR WAVE FUNCTION - DIMENSIONALITY OF THE SYSTEM    3
 (NON PERIODIC DIRECTION: LATTICE PARAMETER FORMALLY SET TO 500)
 *******************************************************************************
 LATTICE PARAMETERS (ANGSTROMS AND DEGREES) - BOHR = 0.5291772083 ANGSTROM
 PRIMITIVE CELL - CENTRING CODE 1/0 VOLUME=  1000.000000 - DENSITY  0.027 g/cm^3
         A              B              C           ALPHA      BETA       GAMMA 
    10.00000000    10.00000000    10.00000000    90.000000  90.000000  90.000000
 *******************************************************************************
 ATOMS IN THE ASYMMETRIC UNIT    5 - ATOMS IN THE UNIT CELL:    5
     ATOM              X/A                 Y/B                 Z/C    
 *******************************************************************************
   1 T   6 C     0.000000000000E+00  0.000000000000E+00  0.000000000000E+00
   2 T   1 H    -2.311115933265E-33  0.000000000000E+00  1.069999960000E-01
   3 T   1 H     7.703719777549E-34 -1.008805630000E-01 -3.566666500000E-02
   4 T   1 H    -8.736513000000E-02  5.044028200000E-02 -3.566666500000E-02
   5 T   1 H     8.736513000000E-02  5.044028200000E-02 -3.566666500000E-02

 T = ATOM BELONGING TO THE ASYMMETRIC UNIT

 ****   1 SYMMOPS - TRANSLATORS IN FRACTIONAL UNITS
  V INV                   ROTATION MATRICES                       TRANSLATOR
  1  1  1.00  0.00  0.00  0.00  1.00  0.00  0.00  0.00  1.00    0.00  0.00  0.00

 DIRECT LATTICE VECTORS CARTESIAN COMPONENTS (ANGSTROM)
          X                    Y                    Z
   0.100000000000E+02   0.612323399574E-15   0.000000000000E+00
   0.000000000000E+00   0.100000000000E+02   0.000000000000E+00
   0.612323399574E-15   0.612323399574E-15   0.100000000000E+02


 CARTESIAN COORDINATES - PRIMITIVE CELL
 *******************************************************************************
 *      ATOM          X(ANGSTROM)         Y(ANGSTROM)         Z(ANGSTROM)
 *******************************************************************************
   1     6 C     0.000000000000E+00  0.000000000000E+00  0.000000000000E+00
   2     1 H     6.551860130509E-17  6.551860130509E-17  1.069999960000E+00
   3     1 H    -2.183953356426E-17 -1.008805630000E+00 -3.566666500000E-01
   4     1 H    -8.736513000000E-01  5.044028200000E-01 -3.566666500000E-01
   5     1 H     8.736513000000E-01  5.044028200000E-01 -3.566666500000E-01

 *******************************************************************************
 LOCAL ATOMIC FUNCTIONS BASIS SET
 *******************************************************************************
   ATOM  X(AU)  Y(AU)  Z(AU)    NO. TYPE  EXPONENT  S COEF   P COEF   D/F/G COEF
 *******************************************************************************
   1 C   0.000  0.000  0.000
                                  1 S  
                                         3.048E+03 1.835E-03 0.000E+00 0.000E+00
                                         4.574E+02 1.404E-02 0.000E+00 0.000E+00
                                         1.039E+02 6.884E-02 0.000E+00 0.000E+00
                                         2.921E+01 2.322E-01 0.000E+00 0.000E+00
                                         9.287E+00 4.679E-01 0.000E+00 0.000E+00
                                         3.164E+00 3.623E-01 0.000E+00 0.000E+00
                             2-   5 SP 
                                         7.868E+00-1.193E-01 6.900E-02 0.000E+00
                                         1.881E+00-1.609E-01 3.164E-01 0.000E+00
                                         5.442E-01 1.143E+00 7.443E-01 0.000E+00
                             6-   9 SP 
                                         1.687E-01 1.000E+00 1.000E+00 0.000E+00
   2 H   0.000  0.000  2.022
                                 10 S  
                                         1.873E+01 3.349E-02 0.000E+00 0.000E+00
                                         2.825E+00 2.347E-01 0.000E+00 0.000E+00
                                         6.401E-01 8.138E-01 0.000E+00 0.000E+00
                                 11 S  
                                         1.613E-01 1.000E+00 0.000E+00 0.000E+00
   3 H   0.000 -1.906 -0.674
   4 H  -1.651  0.953 -0.674
   5 H   1.651  0.953 -0.674
 INFORMATION **** READM2 **** FULL DIRECT SCF (MONO AND BIEL INT) SELECTED
 INFORMATION **** MAXCYCLE **** MAX NUMBER OF SCF CYCLES SET TO         500
 *******************************************************************************
 N. OF ATOMS PER CELL        5  COULOMB OVERLAP TOL         (T1) 10** -6
 NUMBER OF SHELLS           11  COULOMB PENETRATION TOL     (T2) 10** -6
 NUMBER OF AO               17  EXCHANGE OVERLAP TOL        (T3) 10** 20
 N. OF ELECTRONS PER CELL   10  EXCHANGE PSEUDO OVP (F(G))  (T4) 10** 20
 CORE ELECTRONS PER CELL     2  EXCHANGE PSEUDO OVP (P(G))  (T5) 10** 20
 N. OF SYMMETRY OPERATORS    1  POLE ORDER IN MONO ZONE                4
 *******************************************************************************
 TYPE OF CALCULATION :  RESTRICTED CLOSED SHELL
 KOHN-SHAM HAMILTONIAN

 (EXCHANGE)[CORRELATION] FUNCTIONAL:(PERDEW-BURKE-ERNZERHOF)[PERDEW-BURKE-ERNZERHOF]


 CAPPA:IS1  2;IS2  2;IS3  2; K PTS MONK NET    8; SYMMOPS: K SPACE  2;G SPACE  1

 *******************************************************************************
 MAX NUMBER OF SCF CYCLES     500  CONVERGENCE ON DELTAP        10**-16
 WEIGHT OF F(I) IN F(I+1)      60% CONVERGENCE ON ENERGY        10**-10
 SHRINK. FACT.(MONKH.)    2  2  2  NUMBER OF K POINTS IN THE IBZ      8
 SHRINKING FACTOR(GILAT NET)    4  NUMBER OF K POINTS(GILAT NET)     36
 *******************************************************************************
 *** K POINTS COORDINATES (OBLIQUE COORDINATES IN UNITS OF IS =  2)
   1-R(  0  0  0)   2-R(  1  0  0)   3-R(  0  1  0)   4-R(  1  1  0)
   5-R(  0  0  1)   6-R(  1  0  1)   7-R(  0  1  1)   8-R(  1  1  1)

 DIRECT LATTICE VECTORS COMPON. (A.U.)     RECIP. LATTICE VECTORS COMPON. (A.U.) 
        X            Y            Z              X            Y            Z
   18.8972613    0.0000000    0.0000000      0.3324918    0.0000000    0.0000000
    0.0000000   18.8972613    0.0000000      0.0000000    0.3324918    0.0000000
    0.0000000    0.0000000   18.8972613      0.0000000    0.0000000    0.3324918

 DISK SPACE FOR EIGENVECTORS (FTN 10)       2312 REALS

 SYMMETRY ADAPTION OF THE BLOCH FUNCTIONS DISABLED
 TTTTTTTTTTTTTTTTTTTTTTTTTTTTTT gordsh1     TELAPSE        1.01 TCPU        0.01

 DIMENSIONS  P(G)=     289 F(G)=     153 P(G),F(G) (IRR)     165
 MAX G-VECTOR INDEX FOR 1- AND 2-ELECTRON INTEGRALS   1

 TTTTTTTTTTTTTTTTTTTTTTTTTTTTTT INPUT       TELAPSE        1.01 TCPU        0.01

 NEIGHBORS OF THE NON-EQUIVALENT ATOMS

 N = NUMBER OF NEIGHBORS AT DISTANCE R
    ATOM  N     R/ANG      R/AU   NEIGHBORS (ATOM LABELS AND CELL INDICES)
   1 C    4     1.0700     2.0220   4 H    0 0 0   5 H    0 0 0   3 H    0 0 0
                                    2 H    0 0 0

   2 H    1     1.0700     2.0220   1 C    0 0 0
   2 H    3     1.7473     3.3019   4 H    0 0 0   5 H    0 0 0   3 H    0 0 0

   3 H    1     1.0700     2.0220   1 C    0 0 0
   3 H    3     1.7473     3.3019   4 H    0 0 0   5 H    0 0 0   2 H    0 0 0

   4 H    1     1.0700     2.0220   1 C    0 0 0
   4 H    1     1.7473     3.3019   5 H    0 0 0
   4 H    2     1.7473     3.3019   3 H    0 0 0   2 H    0 0 0

   5 H    1     1.0700     2.0220   1 C    0 0 0
   5 H    1     1.7473     3.3019   4 H    0 0 0
   5 H    2     1.7473     3.3019   3 H    0 0 0   2 H    0 0 0


 SYMMETRY ALLOWED INTERNAL DEGREE(S) OF FREEDOM:  12
 TTTTTTTTTTTTTTTTTTTTTTTTTTTTTT SYMM        TELAPSE        1.01 TCPU        0.01
 TTTTTTTTTTTTTTTTTTTTTTTTTTTTTT INT_SCREEN  TELAPSE        1.01 TCPU        0.01

 *******************************************************************************
 *                                                                             *
 *                                                                             *
 *         FFFFF  RRRR   EEEE   EEE   U   U  EEEE  N   N   CCC  Y   Y          *
 *         F      R   R  E     E   E  U   U  E     NN  N  C      Y Y           *
 *         FFF    RRRR   EEEE  E   E  U   U  EEEE  N N N  C       Y            *
 *         F      R   R  E     E  EE  U   U  E     N  NN  C       Y            *
 *         F      R   R  EEEE   EE E   UUU   EEEE  N   N   CCC    Y            *
 *                                                                             *
 *                                                                             *
 * CALCULATION OF PHONON FREQUENCIES AT THE GAMMA POINT.                       *
 *                                                                             *
 * SYMMETRY IS EXPLOITED TO BUILD THE TOTAL HESSIAN MATRIX.                    *
 * (F. PASCALE PHD THESIS TURIN-PARIS 2002)                                    *
 *                                                                             *
 *******************************************************************************


 *                                                                             *
 * REFERENCES TO BE QUOTED WHEN USING THIS MODULE:                             *
 *                                                                             *
 * F. Pascale, C.M. Zicovich-Wilson, F. Lopez, B. Civalleri                    *
 * R. Orlando, R. Dovesi                                                       *
 * The calculation of the vibration frequencies of crystalline                 *
 * compounds and its implementation in the CRYSTAL code                        *
 * J. Comput. Chem. 25 (2004) 888-897                                          *
 *                                                                             *
 * C.M. Zicovich-Wilson, F. Pascale, C. Roetti, V.R. Saunders,                 *
 * R. Orlando, R. Dovesi                                                       *
 * The calculation of the vibration frequencies of alpha-quartz:               *
 * the effect of hamiltonian and basis set                                     *
 * J. Comput. Chem. 25 (2004) 1873-1881                                        *
 *******************************************************************************



 ATOMS ISOTOPIC MASS (AMU) FOR FREQUENCY CALCULATION 

    1 C      12.0000    2 H       1.0078    3 H       1.0078    4 H       1.0078
    5 H       1.0078

 STEP SIZE                  0.0030 ANGSTROM

 INFORMATION CONCERNING THE SCF+GRADIENT CALCULATIONS REQUIRED FOR
 GENERATING FREQUENCIES. IN PRINCIPLE 3N+1 SCF + GRADIENT
 CALCULATIONS  ARE REQUIRED;
 FOR EACH OF THEM THE REMAINING POINT SYMMETRY IS INDICATED.
 POINT SYMMETRY PERMITS TO GENERATE GRADIENTS FOR DISPLACEMENT B 
 STARTING FROM THE GRADIENT GENERATED BY DISPLACEMENT A.

   N   LABEL SYMBOL DISPLACEMENT     SYM. 

   1     EQUILIBRIUM GEOMETRY            1

   2      1   C            DX        GENERATED BY TRANSLATIONAL INVARIANCE
   3      1   C            DY        GENERATED BY TRANSLATIONAL INVARIANCE
   4      1   C            DZ        GENERATED BY TRANSLATIONAL INVARIANCE
   5      2   H            DX            1
   6      2   H            DY            1
   7      2   H            DZ            1
   8      3   H            DX            1
   9      3   H            DY            1
  10      3   H            DZ            1
  11      4   H            DX            1
  12      4   H            DY            1
  13      4   H            DZ            1
  14      5   H            DX            1
  15      5   H            DY            1
  16      5   H            DZ            1
 USE OF RESIDUAL SYMMETRY AFTER DISPLACEMENT

 NUMERICAL GRADIENT COMPUTED WITH A SINGLE DISPLACEMENT (+dx) FOR EACH
 CARTESIAN COORDINATE WITH RESPECT TO THE EQUILIBRIUM CONFIGURATION
 dx=  0.003
 NUMBER OF IRREDUCIBLE ATOMS                     5
 NUMBER OF SCF+GRADIENT CALCULATIONS            13

  ATOM  SYMOP  ORDER
    1      1      1
    2      1      1
    3      1      1
    4      1      1
    5      1      1

 ATOM  : IRREDUCIBLE ATOM
 SYMOP : NUMBER OF SYMMETRY OPERATORS THAT DOESN'T MOVE THE IRREDUCIBLE ATOM
 ORDER : MAXIMUM ORDER AMONG THE OPERATORS OF THE IRREDUCIBLE ATOM

 *******************************************************************************


 GCALCO - MAX INDICES DIRECT LATTICE VECTOR    14    14    14
 NO.OF VECTORS CREATED 6999 STARS  120 RMAX   224.39255 BOHR

 CAPPA:IS1  2;IS2  2;IS3  2; K PTS MONK NET    8; SYMMOPS: K SPACE  2;G SPACE  1

 TTTTTTTTTTTTTTTTTTTTTTTTTTTTTT gordsh1     TELAPSE        1.02 TCPU        0.01

 DIMENSIONS  P(G)=     289 F(G)=     153 P(G),F(G) (IRR)     165
 MAX G-VECTOR INDEX FOR 1- AND 2-ELECTRON INTEGRALS   1

 TTTTTTTTTTTTTTTTTTTTTTTTTTTTTT INPUT       TELAPSE        1.02 TCPU        0.01

 SYMMETRY ALLOWED INTERNAL DEGREE(S) OF FREEDOM:  12
 TTTTTTTTTTTTTTTTTTTTTTTTTTTTTT SYMM        TELAPSE        1.02 TCPU        0.01
 TTTTTTTTTTTTTTTTTTTTTTTTTTTTTT INT_SCREEN  TELAPSE        1.02 TCPU        0.01
 INFORMATION **** EXCBUF **** EXCH. BIPO BUFFER: WORDS USED =           0

 DFT PARAMETERS

     ATOM       ELECTRONS   NET CHARGE   R(ANGSTROM)
   1   6  C       6.0000      0.0000     0.77000000
   2   1  H       1.0000      0.0000     1.11000000

 SIZE OF GRID=     168789
 TTTTTTTTTTTTTTTTTTTTTTTTTTTTTT MAKE_GRID2  TELAPSE        1.10 TCPU        0.09
 BECKE WEIGHT FUNCTION
 RADSAFE =     2.00
 TOLERANCES - DENSITY:10**- 6; POTENTIAL:10**- 9; GRID WGT:10**-14

 RADIAL INTEGRATION  - INTERVALS (POINTS,UPPER LIMIT):            1( 75,  4.0*R)

 ANGULAR INTEGRATION - INTERVALS (ACCURACY LEVEL [N. POINTS] UPPER LIMIT):
  1(  4[  86]   0.2)  2(  8[ 194]   0.5)  3( 12[ 350]   0.9)  4( 16[ 974]   3.5)
  5( 12[ 350]9999.0)
 TTTTTTTTTTTTTTTTTTTTTTTTTTTTTT INT_CALC    TELAPSE        1.12 TCPU        0.11

 *******************************************************************************
 Methane                                                                         
 CRYSTAL - SCF - TYPE OF CALCULATION :  RESTRICTED CLOSED SHELL
 *******************************************************************************

 CAPPA:IS1  2;IS2  2;IS3  2; K PTS MONK NET    8; SYMMOPS: K SPACE  2;G SPACE  1

 TTTTTTTTTTTTTTTTTTTTTTTTTTTTTT SDIK        TELAPSE        1.13 TCPU        0.12

 AAAAAAAAAAAAAAAAAAAAAAAAAAAAAAAAAAAAAAAAAAAAAAAAAAAAAAAAAAAAAAAAAAAAAAAAAAAAAAA
         ATOMIC WAVEFUNCTION(S)


 NUCLEAR CHARGE  6.0  SYMMETRY SPECIES            S    P
 N. ELECTRONS    6.0  NUMBER OF PRIMITIVE GTOS   10    4
                      NUMBER OF CONTRACTED GTOS   3    2
                      NUMBER OF CLOSED SHELLS     2    0
                      OPEN SHELL OCCUPATION       0    2

  ZNUC SCFIT  TOTAL HF ENERGY   KINETIC ENERGY   VIRIAL THEOREM ACCURACY
   6.0   9   -3.767686565E+01  3.769049035E+01 -1.999638511E+00  3.3E-06

 NUCLEAR CHARGE  1.0  SYMMETRY SPECIES            S
 N. ELECTRONS    1.0  NUMBER OF PRIMITIVE GTOS    4
                      NUMBER OF CONTRACTED GTOS   2
                      NUMBER OF CLOSED SHELLS     0
                      OPEN SHELL OCCUPATION       1

  ZNUC SCFIT  TOTAL HF ENERGY   KINETIC ENERGY   VIRIAL THEOREM ACCURACY
   1.0   1   -4.982329107E-01  5.098666918E-01 -1.977182700E+00  0.0E+00

 AAAAAAAAAAAAAAAAAAAAAAAAAAAAAAAAAAAAAAAAAAAAAAAAAAAAAAAAAAAAAAAAAAAAAAAAAAAAAAA

 TTTTTTTTTTTTTTTTTTTTTTTTTTTTTT MOQGAD      TELAPSE        1.13 TCPU        0.12
 TTTTTTTTTTTTTTTTTTTTTTTTTTTTTT SHELLX      TELAPSE        1.13 TCPU        0.12
 TTTTTTTTTTTTTTTTTTTTTTTTTTTTTT MONMO3      TELAPSE        1.13 TCPU        0.13
 NUMERICALLY INTEGRATED DENSITY      9.9999998225
 TTTTTTTTTTTTTTTTTTTTTTTTTTTTTT NUMDFT      TELAPSE        1.19 TCPU        0.18
 CYC   0 ETOT(AU) -4.037238305099E+01 DETOT -4.04E+01 tst  0.00E+00 PX  1.00E+00
 TTTTTTTTTTTTTTTTTTTTTTTTTTTTTT FDIK        TELAPSE        1.19 TCPU        0.18
 INSULATING STATE
 TOP OF VALENCE BANDS -    BAND      5; K    1; EIG -4.8881485E-01 AU
 BOTTOM OF VIRTUAL BANDS - BAND      6; K    1; EIG  3.6079938E-02 AU
 TTTTTTTTTTTTTTTTTTTTTTTTTTTTTT PDIG        TELAPSE        1.19 TCPU        0.18
 TTTTTTTTTTTTTTTTTTTTTTTTTTTTTT MOQGAD      TELAPSE        1.19 TCPU        0.18
 TTTTTTTTTTTTTTTTTTTTTTTTTTTTTT SHELLX      TELAPSE        1.19 TCPU        0.18
 TTTTTTTTTTTTTTTTTTTTTTTTTTTTTT MONMO3      TELAPSE        1.19 TCPU        0.19
 NUMERICALLY INTEGRATED DENSITY     10.0000000424
 TTTTTTTTTTTTTTTTTTTTTTTTTTTTTT NUMDFT      TELAPSE        1.29 TCPU        0.28
 CYC   1 ETOT(AU) -4.034773076054E+01 DETOT  2.47E-02 tst  0.00E+00 PX  1.00E+00
 TTTTTTTTTTTTTTTTTTTTTTTTTTTTTT FDIK        TELAPSE        1.29 TCPU        0.28
 INSULATING STATE
 TOP OF VALENCE BANDS -    BAND      5; K    1; EIG -3.8175630E-01 AU
 BOTTOM OF VIRTUAL BANDS - BAND      6; K    1; EIG  8.3393035E-02 AU
 TTTTTTTTTTTTTTTTTTTTTTTTTTTTTT PDIG        TELAPSE        1.29 TCPU        0.28
 TTTTTTTTTTTTTTTTTTTTTTTTTTTTTT MOQGAD      TELAPSE        1.29 TCPU        0.28
 TTTTTTTTTTTTTTTTTTTTTTTTTTTTTT SHELLX      TELAPSE        1.29 TCPU        0.29
 TTTTTTTTTTTTTTTTTTTTTTTTTTTTTT MONMO3      TELAPSE        1.30 TCPU        0.29
 NUMERICALLY INTEGRATED DENSITY     10.0000000256
 TTTTTTTTTTTTTTTTTTTTTTTTTTTTTT NUMDFT      TELAPSE        1.41 TCPU        0.40
 CYC   2 ETOT(AU) -4.043526494597E+01 DETOT -8.75E-02 tst  2.76E-03 PX  1.56E-01
 TTTTTTTTTTTTTTTTTTTTTTTTTTTTTT FDIK        TELAPSE        1.41 TCPU        0.40
 INSULATING STATE
 TOP OF VALENCE BANDS -    BAND      5; K    1; EIG -3.6297237E-01 AU
 BOTTOM OF VIRTUAL BANDS - BAND      6; K    1; EIG  9.2815648E-02 AU
 TTTTTTTTTTTTTTTTTTTTTTTTTTTTTT PDIG        TELAPSE        1.41 TCPU        0.40
 TTTTTTTTTTTTTTTTTTTTTTTTTTTTTT MOQGAD      TELAPSE        1.41 TCPU        0.40
 TTTTTTTTTTTTTTTTTTTTTTTTTTTTTT SHELLX      TELAPSE        1.41 TCPU        0.40
 TTTTTTTTTTTTTTTTTTTTTTTTTTTTTT MONMO3      TELAPSE        1.41 TCPU        0.40
 NUMERICALLY INTEGRATED DENSITY     10.0000000236
 TTTTTTTTTTTTTTTTTTTTTTTTTTTTTT NUMDFT      TELAPSE        1.50 TCPU        0.50
 CYC   3 ETOT(AU) -4.043606858122E+01 DETOT -8.04E-04 tst  2.01E-05 PX  8.40E-03
 TTTTTTTTTTTTTTTTTTTTTTTTTTTTTT FDIK        TELAPSE        1.50 TCPU        0.50
 INSULATING STATE
 TOP OF VALENCE BANDS -    BAND      5; K    1; EIG -3.5453320E-01 AU
 BOTTOM OF VIRTUAL BANDS - BAND      6; K    1; EIG  9.7136438E-02 AU
 TTTTTTTTTTTTTTTTTTTTTTTTTTTTTT PDIG        TELAPSE        1.50 TCPU        0.50
 TTTTTTTTTTTTTTTTTTTTTTTTTTTTTT MOQGAD      TELAPSE        1.50 TCPU        0.50
 TTTTTTTTTTTTTTTTTTTTTTTTTTTTTT SHELLX      TELAPSE        1.51 TCPU        0.50
 TTTTTTTTTTTTTTTTTTTTTTTTTTTTTT MONMO3      TELAPSE        1.51 TCPU        0.50
 NUMERICALLY INTEGRATED DENSITY     10.0000000230
 TTTTTTTTTTTTTTTTTTTTTTTTTTTTTT NUMDFT      TELAPSE        1.60 TCPU        0.59
 CYC   4 ETOT(AU) -4.043624909944E+01 DETOT -1.81E-04 tst  3.98E-06 PX  3.83E-03
 TTTTTTTTTTTTTTTTTTTTTTTTTTTTTT FDIK        TELAPSE        1.60 TCPU        0.59
 INSULATING STATE
 TOP OF VALENCE BANDS -    BAND      5; K    1; EIG -3.5010066E-01 AU
 BOTTOM OF VIRTUAL BANDS - BAND      6; K    1; EIG  9.9405833E-02 AU
 TTTTTTTTTTTTTTTTTTTTTTTTTTTTTT PDIG        TELAPSE        1.60 TCPU        0.59
 TTTTTTTTTTTTTTTTTTTTTTTTTTTTTT MOQGAD      TELAPSE        1.60 TCPU        0.59
 TTTTTTTTTTTTTTTTTTTTTTTTTTTTTT SHELLX      TELAPSE        1.60 TCPU        0.60
 TTTTTTTTTTTTTTTTTTTTTTTTTTTTTT MONMO3      TELAPSE        1.61 TCPU        0.60
 NUMERICALLY INTEGRATED DENSITY     10.0000000227
 TTTTTTTTTTTTTTTTTTTTTTTTTTTTTT NUMDFT      TELAPSE        1.69 TCPU        0.69
 CYC   5 ETOT(AU) -4.043630094876E+01 DETOT -5.18E-05 tst  1.26E-06 PX  2.07E-03
 TTTTTTTTTTTTTTTTTTTTTTTTTTTTTT FDIK        TELAPSE        1.70 TCPU        0.69
 INSULATING STATE
 TOP OF VALENCE BANDS -    BAND      5; K    1; EIG -3.4772437E-01 AU
 BOTTOM OF VIRTUAL BANDS - BAND      6; K    1; EIG  1.0061807E-01 AU
 TTTTTTTTTTTTTTTTTTTTTTTTTTTTTT PDIG        TELAPSE        1.70 TCPU        0.69
 TTTTTTTTTTTTTTTTTTTTTTTTTTTTTT MOQGAD      TELAPSE        1.70 TCPU        0.69
 TTTTTTTTTTTTTTTTTTTTTTTTTTTTTT SHELLX      TELAPSE        1.70 TCPU        0.69
 TTTTTTTTTTTTTTTTTTTTTTTTTTTTTT MONMO3      TELAPSE        1.70 TCPU        0.69
 NUMERICALLY INTEGRATED DENSITY     10.0000000225
 TTTTTTTTTTTTTTTTTTTTTTTTTTTTTT NUMDFT      TELAPSE        1.79 TCPU        0.79
 CYC   6 ETOT(AU) -4.043631590019E+01 DETOT -1.50E-05 tst  3.71E-07 PX  1.11E-03
 TTTTTTTTTTTTTTTTTTTTTTTTTTTTTT FDIK        TELAPSE        1.79 TCPU        0.79
 INSULATING STATE
 TOP OF VALENCE BANDS -    BAND      5; K    1; EIG -3.4644734E-01 AU
 BOTTOM OF VIRTUAL BANDS - BAND      6; K    1; EIG  1.0126646E-01 AU
 TTTTTTTTTTTTTTTTTTTTTTTTTTTTTT PDIG        TELAPSE        1.79 TCPU        0.79
 TTTTTTTTTTTTTTTTTTTTTTTTTTTTTT MOQGAD      TELAPSE        1.80 TCPU        0.79
 TTTTTTTTTTTTTTTTTTTTTTTTTTTTTT SHELLX      TELAPSE        1.80 TCPU        0.79
 TTTTTTTTTTTTTTTTTTTTTTTTTTTTTT MONMO3      TELAPSE        1.80 TCPU        0.79
 NUMERICALLY INTEGRATED DENSITY     10.0000000224
 TTTTTTTTTTTTTTTTTTTTTTTTTTTTTT NUMDFT      TELAPSE        1.89 TCPU        0.88
 CYC   7 ETOT(AU) -4.043632021468E+01 DETOT -4.31E-06 tst  1.09E-07 PX  5.96E-04
 TTTTTTTTTTTTTTTTTTTTTTTTTTTTTT FDIK        TELAPSE        1.89 TCPU        0.88
 INSULATING STATE
 TOP OF VALENCE BANDS -    BAND      5; K    1; EIG -3.4576048E-01 AU
 BOTTOM OF VIRTUAL BANDS - BAND      6; K    1; EIG  1.0161322E-01 AU
 TTTTTTTTTTTTTTTTTTTTTTTTTTTTTT PDIG        TELAPSE        1.89 TCPU        0.88
 TTTTTTTTTTTTTTTTTTTTTTTTTTTTTT MOQGAD      TELAPSE        1.89 TCPU        0.88
 TTTTTTTTTTTTTTTTTTTTTTTTTTTTTT SHELLX      TELAPSE        1.89 TCPU        0.88
 TTTTTTTTTTTTTTTTTTTTTTTTTTTTTT MONMO3      TELAPSE        1.90 TCPU        0.89
 NUMERICALLY INTEGRATED DENSITY     10.0000000223
 TTTTTTTTTTTTTTTTTTTTTTTTTTTTTT NUMDFT      TELAPSE        1.98 TCPU        0.97
 CYC   8 ETOT(AU) -4.043632146139E+01 DETOT -1.25E-06 tst  3.20E-08 PX  3.18E-04
 TTTTTTTTTTTTTTTTTTTTTTTTTTTTTT FDIK        TELAPSE        1.98 TCPU        0.97
 INSULATING STATE
 TOP OF VALENCE BANDS -    BAND      5; K    1; EIG -3.4539072E-01 AU
 BOTTOM OF VIRTUAL BANDS - BAND      6; K    1; EIG  1.0179860E-01 AU
 TTTTTTTTTTTTTTTTTTTTTTTTTTTTTT PDIG        TELAPSE        1.98 TCPU        0.97
 TTTTTTTTTTTTTTTTTTTTTTTTTTTTTT MOQGAD      TELAPSE        1.98 TCPU        0.97
 TTTTTTTTTTTTTTTTTTTTTTTTTTTTTT SHELLX      TELAPSE        1.99 TCPU        0.98
 TTTTTTTTTTTTTTTTTTTTTTTTTTTTTT MONMO3      TELAPSE        1.99 TCPU        0.98
 NUMERICALLY INTEGRATED DENSITY     10.0000000223
 TTTTTTTTTTTTTTTTTTTTTTTTTTTTTT NUMDFT      TELAPSE        2.08 TCPU        1.07
 CYC   9 ETOT(AU) -4.043632182236E+01 DETOT -3.61E-07 tst  9.43E-09 PX  1.70E-04
 TTTTTTTTTTTTTTTTTTTTTTTTTTTTTT FDIK        TELAPSE        2.08 TCPU        1.07
 INSULATING STATE
 TOP OF VALENCE BANDS -    BAND      5; K    1; EIG -3.4519168E-01 AU
 BOTTOM OF VIRTUAL BANDS - BAND      6; K    1; EIG  1.0189764E-01 AU
 TTTTTTTTTTTTTTTTTTTTTTTTTTTTTT PDIG        TELAPSE        2.08 TCPU        1.07
 TTTTTTTTTTTTTTTTTTTTTTTTTTTTTT MOQGAD      TELAPSE        2.08 TCPU        1.07
 TTTTTTTTTTTTTTTTTTTTTTTTTTTTTT SHELLX      TELAPSE        2.08 TCPU        1.07
 TTTTTTTTTTTTTTTTTTTTTTTTTTTTTT MONMO3      TELAPSE        2.09 TCPU        1.08
 NUMERICALLY INTEGRATED DENSITY     10.0000000223
 TTTTTTTTTTTTTTTTTTTTTTTTTTTTTT NUMDFT      TELAPSE        2.18 TCPU        1.17
 CYC  10 ETOT(AU) -4.043632192716E+01 DETOT -1.05E-07 tst  2.78E-09 PX  9.08E-05
 TTTTTTTTTTTTTTTTTTTTTTTTTTTTTT FDIK        TELAPSE        2.18 TCPU        1.17
 INSULATING STATE
 TOP OF VALENCE BANDS -    BAND      5; K    1; EIG -3.4508460E-01 AU
 BOTTOM OF VIRTUAL BANDS - BAND      6; K    1; EIG  1.0195043E-01 AU
 TTTTTTTTTTTTTTTTTTTTTTTTTTTTTT PDIG        TELAPSE        2.18 TCPU        1.17
 TTTTTTTTTTTTTTTTTTTTTTTTTTTTTT MOQGAD      TELAPSE        2.18 TCPU        1.17
 TTTTTTTTTTTTTTTTTTTTTTTTTTTTTT SHELLX      TELAPSE        2.18 TCPU        1.17
 TTTTTTTTTTTTTTTTTTTTTTTTTTTTTT MONMO3      TELAPSE        2.18 TCPU        1.17
 NUMERICALLY INTEGRATED DENSITY     10.0000000223
 TTTTTTTTTTTTTTTTTTTTTTTTTTTTTT NUMDFT      TELAPSE        2.27 TCPU        1.26
 CYC  11 ETOT(AU) -4.043632195766E+01 DETOT -3.05E-08 tst  8.24E-10 PX  4.96E-05
 TTTTTTTTTTTTTTTTTTTTTTTTTTTTTT FDIK        TELAPSE        2.28 TCPU        1.27
 INSULATING STATE
 TOP OF VALENCE BANDS -    BAND      5; K    1; EIG -3.4502691E-01 AU
 BOTTOM OF VIRTUAL BANDS - BAND      6; K    1; EIG  1.0197857E-01 AU
 TTTTTTTTTTTTTTTTTTTTTTTTTTTTTT PDIG        TELAPSE        2.28 TCPU        1.27
 TTTTTTTTTTTTTTTTTTTTTTTTTTTTTT MOQGAD      TELAPSE        2.28 TCPU        1.27
 TTTTTTTTTTTTTTTTTTTTTTTTTTTTTT SHELLX      TELAPSE        2.28 TCPU        1.27
 TTTTTTTTTTTTTTTTTTTTTTTTTTTTTT MONMO3      TELAPSE        2.28 TCPU        1.27
 NUMERICALLY INTEGRATED DENSITY     10.0000000222
 TTTTTTTTTTTTTTTTTTTTTTTTTTTTTT NUMDFT      TELAPSE        2.37 TCPU        1.36
 CYC  12 ETOT(AU) -4.043632196656E+01 DETOT -8.91E-09 tst  2.44E-10 PX  2.81E-05
 TTTTTTTTTTTTTTTTTTTTTTTTTTTTTT FDIK        TELAPSE        2.37 TCPU        1.36
 INSULATING STATE
 TOP OF VALENCE BANDS -    BAND      5; K    1; EIG -3.4499585E-01 AU
 BOTTOM OF VIRTUAL BANDS - BAND      6; K    1; EIG  1.0199353E-01 AU
 TTTTTTTTTTTTTTTTTTTTTTTTTTTTTT PDIG        TELAPSE        2.37 TCPU        1.36
 TTTTTTTTTTTTTTTTTTTTTTTTTTTTTT MOQGAD      TELAPSE        2.37 TCPU        1.36
 TTTTTTTTTTTTTTTTTTTTTTTTTTTTTT SHELLX      TELAPSE        2.37 TCPU        1.36
 TTTTTTTTTTTTTTTTTTTTTTTTTTTTTT MONMO3      TELAPSE        2.37 TCPU        1.36
 NUMERICALLY INTEGRATED DENSITY     10.0000000222
 TTTTTTTTTTTTTTTTTTTTTTTTTTTTTT NUMDFT      TELAPSE        2.47 TCPU        1.46
 CYC  13 ETOT(AU) -4.043632196918E+01 DETOT -2.61E-09 tst  7.27E-11 PX  1.60E-05
 TTTTTTTTTTTTTTTTTTTTTTTTTTTTTT FDIK        TELAPSE        2.47 TCPU        1.46
 INSULATING STATE
 TOP OF VALENCE BANDS -    BAND      5; K    1; EIG -3.4497913E-01 AU
 BOTTOM OF VIRTUAL BANDS - BAND      6; K    1; EIG  1.0200146E-01 AU
 TTTTTTTTTTTTTTTTTTTTTTTTTTTTTT PDIG        TELAPSE        2.47 TCPU        1.46
 TTTTTTTTTTTTTTTTTTTTTTTTTTTTTT MOQGAD      TELAPSE        2.47 TCPU        1.46
 TTTTTTTTTTTTTTTTTTTTTTTTTTTTTT SHELLX      TELAPSE        2.47 TCPU        1.46
 TTTTTTTTTTTTTTTTTTTTTTTTTTTTTT MONMO3      TELAPSE        2.48 TCPU        1.46
 NUMERICALLY INTEGRATED DENSITY     10.0000000222
 TTTTTTTTTTTTTTTTTTTTTTTTTTTTTT NUMDFT      TELAPSE        2.57 TCPU        1.56
 CYC  14 ETOT(AU) -4.043632196995E+01 DETOT -7.71E-10 tst  2.17E-11 PX  9.09E-06
 TTTTTTTTTTTTTTTTTTTTTTTTTTTTTT FDIK        TELAPSE        2.57 TCPU        1.56
 INSULATING STATE
 TOP OF VALENCE BANDS -    BAND      5; K    1; EIG -3.4497014E-01 AU
 BOTTOM OF VIRTUAL BANDS - BAND      6; K    1; EIG  1.0200566E-01 AU
 TTTTTTTTTTTTTTTTTTTTTTTTTTTTTT PDIG        TELAPSE        2.57 TCPU        1.56
 TTTTTTTTTTTTTTTTTTTTTTTTTTTTTT MOQGAD      TELAPSE        2.57 TCPU        1.56
 TTTTTTTTTTTTTTTTTTTTTTTTTTTTTT SHELLX      TELAPSE        2.57 TCPU        1.56
 TTTTTTTTTTTTTTTTTTTTTTTTTTTTTT MONMO3      TELAPSE        2.57 TCPU        1.56
 NUMERICALLY INTEGRATED DENSITY     10.0000000222
 TTTTTTTTTTTTTTTTTTTTTTTTTTTTTT NUMDFT      TELAPSE        2.66 TCPU        1.65
 CYC  15 ETOT(AU) -4.043632197018E+01 DETOT -2.29E-10 tst  6.51E-12 PX  5.20E-06
 TTTTTTTTTTTTTTTTTTTTTTTTTTTTTT FDIK        TELAPSE        2.66 TCPU        1.65
 INSULATING STATE
 TOP OF VALENCE BANDS -    BAND      5; K    1; EIG -3.4496530E-01 AU
 BOTTOM OF VIRTUAL BANDS - BAND      6; K    1; EIG  1.0200787E-01 AU
 TTTTTTTTTTTTTTTTTTTTTTTTTTTTTT PDIG        TELAPSE        2.66 TCPU        1.65
 TTTTTTTTTTTTTTTTTTTTTTTTTTTTTT MOQGAD      TELAPSE        2.66 TCPU        1.65
 TTTTTTTTTTTTTTTTTTTTTTTTTTTTTT SHELLX      TELAPSE        2.66 TCPU        1.65
 TTTTTTTTTTTTTTTTTTTTTTTTTTTTTT MONMO3      TELAPSE        2.66 TCPU        1.65
 NUMERICALLY INTEGRATED DENSITY     10.0000000222
 TTTTTTTTTTTTTTTTTTTTTTTTTTTTTT NUMDFT      TELAPSE        2.75 TCPU        1.74
 CYC  16 ETOT(AU) -4.043632197025E+01 DETOT -6.85E-11 tst  1.96E-12 PX  2.96E-06
 TTTTTTTTTTTTTTTTTTTTTTTTTTTTTT FDIK        TELAPSE        2.75 TCPU        1.74
 INSULATING STATE
 TOP OF VALENCE BANDS -    BAND      5; K    1; EIG -3.4496269E-01 AU
 BOTTOM OF VIRTUAL BANDS - BAND      6; K    1; EIG  1.0200903E-01 AU
 TTTTTTTTTTTTTTTTTTTTTTTTTTTTTT PDIG        TELAPSE        2.75 TCPU        1.74
 TTTTTTTTTTTTTTTTTTTTTTTTTTTTTT MOQGAD      TELAPSE        2.75 TCPU        1.74
 TTTTTTTTTTTTTTTTTTTTTTTTTTTTTT SHELLX      TELAPSE        2.75 TCPU        1.74
 ::: PSEUDO TOTAL   ENERGY                        -3.3573119052351E+01
 ::: VIRIAL COEFFICIENT                            1.0915236431179E+00
 TTTTTTTTTTTTTTTTTTTTTTTTTTTTTT MONMO3      TELAPSE        2.76 TCPU        1.75
 NUMERICALLY INTEGRATED DENSITY     10.0000000222
 TTTTTTTTTTTTTTTTTTTTTTTTTTTTTT NUMDFT      TELAPSE        2.85 TCPU        1.83
 CYC  17 ETOT(AU) -4.043632197027E+01 DETOT -2.07E-11 tst  5.92E-13 PX  2.96E-06

 == SCF ENDED - CONVERGENCE ON ENERGY      E(AU) -4.0436321970266E+01 CYCLES  17


 ENERGY EXPRESSION=HARTREE+FOCK EXCH*0.00000+(PBE    EXCH)*1.00000+PBE    CORR


 TOTAL ENERGY(DFT)(AU)( 17) -4.0436321970266E+01 DE-2.1E-11 tester 5.9E-13
 TTTTTTTTTTTTTTTTTTTTTTTTTTTTTT EDFT        TELAPSE        2.85 TCPU        1.83

 *******************************************************************************
 *                             FORCE CALCULATION                               *
 *******************************************************************************

 TTTTTTTTTTTTTTTTTTTTTTTTTTTTTT NUMDFG      TELAPSE        3.03 TCPU        2.02
 INFORMATION **** EXCPOG **** EXCH. BIPO BUFFER LENGTH (WORDS) =           0
 INFORMATION **** GENPOG **** BIPO BUFFER LENGTH (WORDS) =        6600
 TTTTTTTTTTTTTTTTTTTTTTTTTTTTTT SHELXG      TELAPSE        3.04 TCPU        2.03

 CARTESIAN FORCES IN HARTREE/BOHR (ANALYTICAL)
   ATOM                     X                   Y                   Z
   1   6            -3.017792099547E-09 -1.448837799467E-05 -7.447656917556E-06
   2   1             4.723467381118E-10 -9.504114093020E-07  2.118822458564E-02
   3   1            -5.573659825342E-09 -1.997310445773E-02 -7.063174822611E-03
   4   1            -1.730033109471E-02  9.994275281287E-03 -7.058795267276E-03
   5   1             1.730033921386E-02  9.994267965873E-03 -7.058806838839E-03

 RESULTANT FORCE     4.194561364912E-14  2.169792123752E-14 -4.926614671774E-15

 SYMMETRY ALLOWED FORCES (ANALYTICAL) (DIRECTION, FORCE)

    1 -3.3740035E-09    2 -1.6198499E-05    3 -8.3267336E-06    4 -3.2575462E-10
    5 -5.2798750E-06    6  2.4463904E-02    7 -7.8655021E-09    8 -2.4468260E-02
    9 -3.5711679E-06   10 -2.4466369E-02   11  5.1727788E-09   12  8.1823306E-09
 TTTTTTTTTTTTTTTTTTTTTTTTTTTTTT TOTGRA      TELAPSE        3.18 TCPU        2.17

 HHHHHHHHHHHHHHHHHHHHHHHHHHHHHHHHHHHHHHHHHHHHHHHHHHHHHHHHHHHHHHHHHHHHHHHHHHHHHHH
                   FORCE CONSTANT MATRIX - NUMERICAL ESTIMATE
 HHHHHHHHHHHHHHHHHHHHHHHHHHHHHHHHHHHHHHHHHHHHHHHHHHHHHHHHHHHHHHHHHHHHHHHHHHHHHHH
 MAX ABS(DGRAD): MAXIMUM ABSOLUTE GRADIENT DIFFERENCE WITH RESPECT TO
                 THE CENTRAL POINT
 DE:             ENERGY DIFFERENCE WITH RESPECT TO THE CENTRAL POINT
                 (DE IS EXPECTED TO BE POSITIVE FOR ALL DISPLACEMENTS)

   ATOM      MAX ABS(DGRAD)       TOTAL ENERGY (AU)  N.CYC      DE       SYM
    CENTRAL POINT             -4.043632197027E+01    17     0.0000E+00    1
    1 C                       GENERATED BY TRANSLATIONAL INVARIANCE
    2 H  DX   2.1989E-04      -4.043632134952E+01     6     6.2075E-07    1
    2 H  DY   2.2071E-04      -4.043632134301E+01     6     6.2726E-07    1
    2 H  DZ   2.2630E-03      -4.043643565416E+01     8    -1.1368E-04    1
    3 H  DX   2.2119E-04      -4.043632134571E+01     6     6.2455E-07    1
    3 H  DY   2.0669E-03      -4.043620289723E+01     8     1.1907E-04    1
    3 H  DZ   6.4741E-04      -4.043628066009E+01     7     4.1310E-05    1
    4 H  DX   1.6013E-03      -4.043621936292E+01     8     1.0261E-04    1
    4 H  DY   7.9084E-04      -4.043637670709E+01     7    -5.4737E-05    1
    4 H  DZ   5.6018E-04      -4.043628068482E+01     7     4.1285E-05    1
    5 H  DX   1.5853E-03      -4.043641554438E+01     8    -9.3574E-05    1
    5 H  DY   7.9085E-04      -4.043637670709E+01     7    -5.4737E-05    1
    5 H  DZ   5.6017E-04      -4.043628068482E+01     7     4.1285E-05    1

 GCALCO - MAX INDICES DIRECT LATTICE VECTOR    14    14    14
 NO.OF VECTORS CREATED 6999 STARS  120 RMAX   224.39255 BOHR

 CAPPA:IS1  2;IS2  2;IS3  2; K PTS MONK NET    8; SYMMOPS: K SPACE  2;G SPACE  1

 TTTTTTTTTTTTTTTTTTTTTTTTTTTTTT gordsh1     TELAPSE       19.93 TCPU       18.80

 DIMENSIONS  P(G)=     289 F(G)=     153 P(G),F(G) (IRR)     165
 MAX G-VECTOR INDEX FOR 1- AND 2-ELECTRON INTEGRALS   1

 TTTTTTTTTTTTTTTTTTTTTTTTTTTTTT INPUT       TELAPSE       19.93 TCPU       18.80

 SYMMETRY ALLOWED INTERNAL DEGREE(S) OF FREEDOM:  12
 TTTTTTTTTTTTTTTTTTTTTTTTTTTTTT SYMM        TELAPSE       19.93 TCPU       18.80
 TTTTTTTTTTTTTTTTTTTTTTTTTTTTTT INT_SCREEN  TELAPSE       19.94 TCPU       18.80

 +++ SYMMETRY ADAPTION OF VIBRATIONAL MODES +++

 SYMMETRY INFORMATION:
 K-LITTLE GROUP: CLASS TABLE, CHARACTER TABLE.
 IRREP-(DIMENSION, NO. IRREDUCIBLE SETS)
 [WARNINGS: (1) ONLY ACTIVE IRREPS ARE GENERATED AND LISTED.
            (2) ONLY RELEVANT CLASSES ARE CONSIDERED IN THE CHARACTER TABLE
            (3) SYMBOLS MAY NOT FULLY COINCIDE WITH THOSE FROM TEXT BOOKS.
 IN CLASSES WRITTEN AS CX.Y OR SX.Y, X.Y IS A DECIMAL NUMBER THAT
 APPROACHES THE OPERATION FRACTIONAL ORDER.]

 (P, D, RP, RD, STAND FOR PAIRING, DOUBLING, REAL PAIRING AND REAL DOUBLING 
 OF THE IRREPS (SEE MANUAL))

 K[   1] (  0  0  0)

 HHHHHHHHHHHHHHHHHHHHHHHHHHHHHHHHHHHHHHHHHHHHHHHHHHHHHHHHHHHHHHHHHHHHHHHHHHHHHH
 EIGENVALUES (EIGV) OF THE MASS WEIGHTED HESSIAN MATRIX AND HARMONIC
 FREQUENCIES. IRREP LABELS REFER TO SYMMETRY REPRESENTATION ANALYSIS;  A AND I
 INDICATE WHETHER THE MODE IS ACTIVE OR INACTIVE, RESPECTIVELY, FOR IR AND
 RAMAN; IR INTENSITIES IN BRACKETS.

 CONVERSION FACTORS FOR FREQUENCIES:
      1 CM**(-1) =   0.2194746E+06 HARTREE
      1 THZ      =   0.2997925E-01 CM**(-1)

 HHHHHHHHHHHHHHHHHHHHHHHHHHHHHHHHHHHHHHHHHHHHHHHHHHHHHHHHHHHHHHHHHHHHHHHHHHHHHH

    MODES         EIGV          FREQUENCIES     IRREP  IR   INTENS    RAMAN
             (HARTREE**2)   (CM**-1)     (THZ)             (KM/MOL)
    1-   1   -0.5807E-05   -528.9038  -15.8561  (A  )   A (     0.00)   A
    2-   2   -0.5786E-05   -527.9106  -15.8264  (A  )   A (     0.00)   A
    3-   3   -0.5568E-05   -517.8913  -15.5260  (A  )   A (     0.00)   A
    4-   4   -0.5215E-07    -50.1197   -1.5025  (A  )   A (     0.00)   A
    5-   5   -0.3303E-07    -39.8870   -1.1958  (A  )   A (     0.00)   A
    6-   6    0.8524E-07     64.0789    1.9210  (A  )   A (     0.00)   A
    7-   7    0.3462E-04   1291.4249   38.7159  (A  )   A (     0.00)   A
    8-   8    0.3482E-04   1295.1200   38.8267  (A  )   A (     0.00)   A
    9-   9    0.3490E-04   1296.4850   38.8676  (A  )   A (     0.00)   A
   10-  10    0.4898E-04   1535.9331   46.0461  (A  )   A (     0.00)   A
   11-  11    0.4903E-04   1536.8647   46.0740  (A  )   A (     0.00)   A
   12-  12    0.2185E-03   3244.5642   97.2696  (A  )   A (     0.00)   A
   13-  13    0.2393E-03   3395.1746  101.7848  (A  )   A (     0.00)   A
   14-  14    0.2409E-03   3406.2103  102.1156  (A  )   A (     0.00)   A
   15-  15    0.2424E-03   3417.1072  102.4423  (A  )   A (     0.00)   A

 NORMAL MODES NORMALIZED TO CLASSICAL AMPLITUDES

 FREQ(CM**-1)   -528.90   -527.91   -517.89    -50.12    -39.89     64.08

 AT.   1 C  X     0.0000    0.0001   -0.0009    0.2729    0.1660    0.2044
            Y    -0.0009    0.0008    0.0010   -0.2747    0.1584    0.2063
            Z    -0.0001    0.0000   -0.0010   -0.0049    0.3685   -0.1808
 AT.   2 H  X    -0.0066    0.2894    0.0325    0.2782    0.1647    0.1992
            Y     0.2899    0.0071    0.0016   -0.2784    0.1637    0.2099
            Z    -0.0002   -0.0002   -0.0009   -0.0049    0.3676   -0.1815
 AT.   3 H  X     0.0020   -0.1268    0.2639    0.2811    0.1735    0.2023
            Y    -0.0977   -0.0015    0.0005   -0.2729    0.1595    0.2060
            Z     0.2748    0.0063    0.0004   -0.0085    0.3690   -0.1799
 AT.   4 H  X     0.0025   -0.0810   -0.1497    0.2693    0.1652    0.2074
            Y    -0.0973    0.0250   -0.2387   -0.2769    0.1528    0.2086
            Z    -0.1427    0.2335    0.0260    0.0009    0.3633   -0.1872
 AT.   5 H  X     0.0022   -0.0807   -0.1492    0.2662    0.1621    0.2053
            Y    -0.0977   -0.0288    0.2384   -0.2635    0.1643    0.2041
            Z    -0.1318   -0.2394   -0.0277   -0.0070    0.3670   -0.1813

 FREQ(CM**-1)   1291.42   1295.12   1296.48   1535.93   1536.86   3244.56

 AT.   1 C  X     0.0027   -0.0318    0.0151   -0.0002   -0.0001   -0.0005
            Y    -0.0048   -0.0155   -0.0313    0.0000   -0.0001   -0.0005
            Z    -0.0349   -0.0001    0.0056    0.0001    0.0001   -0.0007
 AT.   2 H  X    -0.0124    0.1527   -0.0741   -0.1389   -0.0010    0.0000
            Y     0.0237    0.0751    0.1506    0.0009   -0.1390    0.0000
            Z    -0.0237   -0.0004    0.0037    0.0001    0.0002    0.1024
 AT.   3 H  X    -0.0121    0.1514   -0.0733    0.1403    0.0010    0.0000
            Y    -0.0602   -0.0009    0.0073    0.0005   -0.0460   -0.0844
            Z     0.1381   -0.0268   -0.0780   -0.0010    0.1307   -0.0298
 AT.   4 H  X    -0.0438    0.0688    0.0559   -0.0004    0.0804   -0.0753
            Y     0.0433    0.1224    0.0743    0.0801    0.0940    0.0433
            Z     0.1546   -0.0340    0.0272    0.1138   -0.0651   -0.0308
 AT.   5 H  X     0.0386    0.0036   -0.0923    0.0007   -0.0813    0.0809
            Y     0.0535   -0.0107    0.1393   -0.0816    0.0928    0.0467
            Z     0.1467    0.0616   -0.0198   -0.1131   -0.0668   -0.0332

 FREQ(CM**-1)   3395.17   3406.21   3417.11

 AT.   1 C  X    -0.0062   -0.0142   -0.0053
            Y    -0.0039   -0.0040    0.0153
            Z     0.0146   -0.0070    0.0019
 AT.   2 H  X    -0.0017   -0.0037   -0.0014
            Y    -0.0011   -0.0010    0.0039
            Z    -0.1365    0.0619   -0.0156
 AT.   3 H  X    -0.0016   -0.0037   -0.0013
            Y    -0.0138    0.0594   -0.1360
            Z    -0.0006    0.0195   -0.0488
 AT.   4 H  X    -0.0166    0.0955    0.0836
            Y     0.0076   -0.0581   -0.0449
            Z    -0.0023    0.0385    0.0351
 AT.   5 H  X     0.0932    0.0808   -0.0178
            Y     0.0539    0.0478   -0.0056
            Z    -0.0350   -0.0364    0.0072

 ESTIMATED NUMBER OF IMAGINARY FREQS    3


 *******************************************************************************

 VIBRATIONAL TEMPERATURES (K) [MODE NUMBER;IRREP]

 TO MODES
    92.2 [   6;A  ]  1858.1 [   7;A  ]  1863.4 [   8;A  ]  1865.4 [   9;A  ]
  2209.9 [  10;A  ]  2211.2 [  11;A  ]  4668.2 [  12;A  ]  4884.9 [  13;A  ]
  4900.8 [  14;A  ]  4916.4 [  15;A  ]

 *******************************************************************************

 HARMONIC VIBRATIONAL CONTRIBUTIONS TO THERMODYNAMIC FUNCTIONS AT GIVEN
 TEMPERATURE AND PRESSURE:

 (EL = ELECTRONIC ENERGY
  E0 = ZERO-POINT ENERGY
  ET = THERMAL CONTRIBUTION TO THE VIBRATIONAL ENERGY
  PV = PRESSURE * VOLUME
  TS = TEMPERATURE * ENTROPY)

                          AU/CELL             EV/CELL                 KJ/MOL
 EL            :     -40.436321970266   -1100.328260418754     -106165.54837149
 E0            :       0.046663622775       1.269781730154         122.51532433


 *******************************************************************************

 THERMODYNAMIC FUNCTIONS WITH VIBRATIONAL CONTRIBUTIONS

 AT (T =  298.15 K, P =   0.10132500E+00 MPA):

                          AU/CELL             EV/CELL                 KJ/MOL
 ET            :       0.000848519904       0.023089400432           2.22778869
 PV            :       0.000023241045       0.000632420974           0.06101935
 TS            :       0.002105559123       0.057295176560           5.52814470
 ET+PV-TS      :      -0.001233798174      -0.033573355154          -3.23933665
 EL+E0+ET+PV-TS:     -40.390892145666   -1099.092052043755     -106046.27238381

 OTHER THERMODINAMIC FUNCTIONS:

                      mHARTREE/(CELL*K)     mEV/(CELL*K)              J/(MOL*K)
 ENTROPY       :       0.007062079902       0.192168963810          18.54148817
 HEAT CAPACITY :       0.004073217711       0.110837888799          10.69423159

 *******************************************************************************
 TTTTTTTTTTTTTTTTTTTTTTTTTTTTTT END         TELAPSE       20.08 TCPU       18.94
 EEEEEEEEEE TERMINATION  DATE 23 07 2013 TIME 08:29:26.6
NODE    0 CPU TIME =        18.938
NODE    1 CPU TIME =        19.010
NODE    2 CPU TIME =        19.007
NODE    3 CPU TIME =        19.004
    TOTAL CPU TIME =        75.959
Tue Jul 23 08:29:26 EDT 2013
Contents of temporary directory in master node dt35.bredas.chemistry.gatech.edu:
total 17092
-rw-r--r-- 1 afonari bredas        0 2013-07-23 08:29 dffit3.dat
-rw-r--r-- 1 afonari bredas        0 2013-07-23 08:29 ERROR
-rw-r--r-- 1 afonari bredas        0 2013-07-23 08:29 ERROR.pe1
-rw-r--r-- 1 afonari bredas        0 2013-07-23 08:29 ERROR.pe2
-rw-r--r-- 1 afonari bredas        0 2013-07-23 08:29 ERROR.pe3
-rw-r--r-- 1 afonari bredas     4640 2013-07-23 08:29 fort.10.pe0
-rw-r--r-- 1 afonari bredas     4640 2013-07-23 08:29 fort.10.pe1
-rw-r--r-- 1 afonari bredas     4640 2013-07-23 08:29 fort.10.pe2
-rw-r--r-- 1 afonari bredas     4640 2013-07-23 08:29 fort.10.pe3
-rw-r--r-- 1 afonari bredas     1328 2013-07-23 08:29 fort.11.pe0
-rw-r--r-- 1 afonari bredas     1328 2013-07-23 08:29 fort.11.pe1
-rw-r--r-- 1 afonari bredas     1328 2013-07-23 08:29 fort.11.pe2
-rw-r--r-- 1 afonari bredas     1328 2013-07-23 08:29 fort.11.pe3
-rw-r--r-- 1 afonari bredas    11656 2013-07-23 08:29 fort.12
-rw-r--r-- 1 afonari bredas     2320 2013-07-23 08:29 fort.13
-rw-r--r-- 1 afonari bredas        0 2013-07-23 08:29 fort.17.pe1
-rw-r--r-- 1 afonari bredas        0 2013-07-23 08:29 fort.17.pe2
-rw-r--r-- 1 afonari bredas        0 2013-07-23 08:29 fort.17.pe3
-rw-r--r-- 1 afonari bredas        0 2013-07-23 08:29 fort.18.pe0
-rw-r--r-- 1 afonari bredas        0 2013-07-23 08:29 fort.18.pe1
-rw-r--r-- 1 afonari bredas        0 2013-07-23 08:29 fort.18.pe2
-rw-r--r-- 1 afonari bredas        0 2013-07-23 08:29 fort.18.pe3
-rw-r--r-- 1 afonari bredas        0 2013-07-23 08:29 fort.1.pe0
-rw-r--r-- 1 afonari bredas        0 2013-07-23 08:29 fort.1.pe1
-rw-r--r-- 1 afonari bredas        0 2013-07-23 08:29 fort.1.pe2
-rw-r--r-- 1 afonari bredas        0 2013-07-23 08:29 fort.1.pe3
-rw-r--r-- 1 afonari bredas   101868 2013-07-23 08:29 fort.20
-rw-r--r-- 1 afonari bredas        0 2013-07-23 08:29 fort.28
-rw-r--r-- 1 afonari bredas        0 2013-07-23 08:29 fort.29
-rw-r--r-- 1 afonari bredas        0 2013-07-23 08:29 fort.38.pe0
-rw-r--r-- 1 afonari bredas        0 2013-07-23 08:29 fort.38.pe1
-rw-r--r-- 1 afonari bredas        0 2013-07-23 08:29 fort.38.pe2
-rw-r--r-- 1 afonari bredas        0 2013-07-23 08:29 fort.38.pe3
-rw-r--r-- 1 afonari bredas        0 2013-07-23 08:29 fort.3.pe0
-rw-r--r-- 1 afonari bredas        0 2013-07-23 08:29 fort.3.pe1
-rw-r--r-- 1 afonari bredas        0 2013-07-23 08:29 fort.3.pe2
-rw-r--r-- 1 afonari bredas        0 2013-07-23 08:29 fort.3.pe3
-rw-r--r-- 1 afonari bredas        0 2013-07-23 08:29 fort.40.pe0
-rw-r--r-- 1 afonari bredas        0 2013-07-23 08:29 fort.40.pe1
-rw-r--r-- 1 afonari bredas        0 2013-07-23 08:29 fort.40.pe2
-rw-r--r-- 1 afonari bredas        0 2013-07-23 08:29 fort.40.pe3
-rw-r--r-- 1 afonari bredas     4640 2013-07-23 08:29 fort.8.pe0
-rw-r--r-- 1 afonari bredas     4640 2013-07-23 08:29 fort.8.pe1
-rw-r--r-- 1 afonari bredas     4640 2013-07-23 08:29 fort.8.pe2
-rw-r--r-- 1 afonari bredas     4640 2013-07-23 08:29 fort.8.pe3
-rw-r--r-- 1 afonari bredas   101868 2013-07-23 08:29 fort.9
-rw-r--r-- 1 afonari bredas     4544 2013-07-23 08:29 fort.95.pe0
-rw-r--r-- 1 afonari bredas     4544 2013-07-23 08:29 fort.95.pe1
-rw-r--r-- 1 afonari bredas     4544 2013-07-23 08:29 fort.95.pe2
-rw-r--r-- 1 afonari bredas     4544 2013-07-23 08:29 fort.95.pe3
-rw-r--r-- 1 afonari bredas     1328 2013-07-23 08:29 fort.96.pe0
-rw-r--r-- 1 afonari bredas     1328 2013-07-23 08:29 fort.96.pe1
-rw-r--r-- 1 afonari bredas     1328 2013-07-23 08:29 fort.96.pe2
-rw-r--r-- 1 afonari bredas     1328 2013-07-23 08:29 fort.96.pe3
-rw-r--r-- 1 afonari bredas  3957918 2013-07-23 08:29 FREQINFO.DAT
-rw-r--r-- 1 afonari bredas     4782 2013-07-23 08:29 HESSFREQ.DAT
-rw-r--r-- 1 afonari bredas     1104 2013-07-23 08:29 INPUT
-rwxr-xr-x 1 afonari bredas 13009791 2013-07-23 08:29 Pcrystal
-rw-r--r-- 1 afonari bredas   123703 2013-07-23 08:29 SCFOUT.LOG
wave function binary file /home/afonari/Cyclopentadiene/Methane-CRYSTAL09/input.f9
file HESSFREQ.DAT saved as /home/afonari/Cyclopentadiene/Methane-CRYSTAL09/input.hessfreq
file SCFOUT.LOG saved as /home/afonari/Cyclopentadiene/Methane-CRYSTAL09/input.SCFLOG
file FREQINFO.DAT saved as /home/afonari/Cyclopentadiene/Methane-CRYSTAL09/input.freqinfo
file fort.13 saved as /home/afonari/Cyclopentadiene/Methane-CRYSTAL09/input.f13
removing temporary directories /scratch/afonari/tmp_p29908_afonari from each node
